 Q-Chem 5.2, Q-Chem, Inc., Pleasanton, CA (2019)
 Q-Chem 5.2.1 for Intel X86 EM64T Linux

User input:
--------------------------------------------------------------

$molecule
1  1
O          0.0051704053       -1.1952677391       -0.0416966056
H          0.0000001889       -0.0000005650        0.0254607672
H          0.2438145411       -1.6941416518        0.7532562573
H         -0.7777029676       -1.6024150601       -0.4420975516
$end

$rem
GEOM_OPT_PRINT       6
jobtype              opt               ! single-point
method               wB97M-V           ! Functional
basis                aug-cc-pvtz       ! or def2-TZVPPD for Case 2
xc_grid              000099000590      ! Local XC Grid, 000075000302 for Case 2
nl_grid              1                 ! Nonlocal Grid, 0 for Case 2
unrestricted         false             ! true or false based on open-shell or closed-shell
max_scf_cycles       200
scf_convergence      8                 ! this can be reduced to 6 for quick calculations (default is 5)
thresh               14                ! Threshold for computing integrals: this can be reduced to 11 for quick calculations (default is 8)
symmetry             false             ! turn off exploitation of symmetry in integral computing
sym_ignore           true              ! ignore point-group symmetry (may result in reorientation and small shifts of the input geom)
incdft               0                 ! turn off incremental DFT
incfock              0                 ! turn off incremental Fock
GEOM_OPT_MAX_CYCLES  250
$end

--------------------------------------------------------------

   11     -76.6756824783      2.00e-09  Convergence criterion met
 Total energy in the final basis set =      -76.6756824783
    9     -76.6996272757      4.63e-09  Convergence criterion met
 Total energy in the final basis set =      -76.6996272757
    9     -76.6983846971      4.12e-09  Convergence criterion met
 Total energy in the final basis set =      -76.6983846971
    9     -76.7029963247      2.62e-09  Convergence criterion met
 Total energy in the final basis set =      -76.7029963247
    7     -76.7031384208      9.83e-09  Convergence criterion met
 Total energy in the final basis set =      -76.7031384208
    7     -76.7031458771      4.37e-09  Convergence criterion met
 Total energy in the final basis set =      -76.7031458771
 Final energy is   -76.7031458771218
 **  OPTIMIZATION CONVERGED  **
 Total job time:  92.22s(wall), 264.94s(cpu)
        *  Thank you very much for using Q-Chem.  Have a nice day.  *
 Q-Chem 5.2, Q-Chem, Inc., Pleasanton, CA (2019)
 Q-Chem 5.2.1 for Intel X86 EM64T Linux

User input:
--------------------------------------------------------------

$molecule
read
$end

$rem
jobtype           freq              ! single-point
method            wB97M-V           ! Functional
basis             aug-cc-pvtz       ! or def2-TZVPPD for Case 2
xc_grid           000099000590      ! Local XC Grid, 000075000302 for Case 2
nl_grid           1                 ! Nonlocal Grid, 0 for Case 2
unrestricted      false             ! true or false based on open-shell or closed-shell
scf_convergence   8                 ! this can be reduced to 6 for quick calculations (default is 5)
thresh            14                ! Threshold for computing integrals: this can be reduced to 11 for quick calculations (default is 8)
symmetry          false             ! turn off exploitation of symmetry in integral computing
sym_ignore        true              ! ignore point-group symmetry (may result in reorientation and small shifts of the input geom)
incdft            0                 ! turn off incremental DFT
incfock           0                 ! turn off incremental Fock
$end

--------------------------------------------------------------

   10     -76.7031458772      2.54e-09  Convergence criterion met
 Total energy in the final basis set =      -76.7031458772
 Total energy in the final basis set =      -76.7031451917
    7     -76.7031453266      2.35e-09  Convergence criterion met
 Total energy in the final basis set =      -76.7031453266
    7     -76.7031453615      1.58e-09  Convergence criterion met
 Total energy in the final basis set =      -76.7031453615
    7     -76.7031452315      2.47e-09  Convergence criterion met
 Total energy in the final basis set =      -76.7031452315
    6     -76.7031456609      7.31e-09  Convergence criterion met
 Total energy in the final basis set =      -76.7031456609
    6     -76.7031456695      8.39e-09  Convergence criterion met
 Total energy in the final basis set =      -76.7031456695
    7     -76.7031456923      1.51e-09  Convergence criterion met
 Total energy in the final basis set =      -76.7031456923
    7     -76.7031456810      1.95e-09  Convergence criterion met
 Total energy in the final basis set =      -76.7031456810

                    Orbital Energies (a.u.)
 --------------------------------------------------------------

 Alpha MOs
 -- Occupied --
-19.7683  -1.5795  -1.0459  -1.0458  -0.8554

          Ground-State Mulliken Net Atomic Charges

     Atom                 Charge (a.u.)
  ----------------------------------------
      1 O                     0.158090
      2 H                     0.280306
      3 H                     0.280522
      4 H                     0.281081
  ----------------------------------------
  Sum of atomic charges =     1.000000

                    Cartesian Multipole Moments
 -----------------------------------------------------------------
    Charge (ESU x 10^10)
                 4.8032
    Dipole Moment (Debye)
         X      -1.2242      Y      -5.2528      Z       0.8649
       Tot       5.4625
    Quadrupole Moments (Debye-Ang)
        XX      -4.4832     XY       1.8843     YY       3.0881
        XZ       1.7595     YZ      -1.4197     ZZ      -4.0872

             Standard Nuclear Orientation (Angstroms)
    I     Atom           X                Y                Z
 ----------------------------------------------------------------
    1      O       0.0214742868    -1.1598596024    -0.0600988800
    2      H      -0.0251617149    -0.1880068421     0.0454237618
    3      H       0.2652169536    -1.6136780505     0.7722337278
    4      H      -0.7902473579    -1.5302805210    -0.4626357423
 ----------------------------------------------------------------

 Frequency:       843.48                1673.79                1673.95
 Force Cnst:      0.4907                 1.7611                 1.7614
 Red. Mass:       1.1705                 1.0669                 1.0669
 IR Intens:      438.282                101.645                101.679
 Frequency:      3580.91                3667.32                3668.84
 Force Cnst:      7.6910                 8.6307                 8.6378
 Red. Mass:       1.0180                 1.0892                 1.0892
 IR Intens:       30.935                472.941                472.656

 STANDARD THERMODYNAMIC QUANTITIES AT   298.15 K  AND     1.00 ATM

   This Molecule has  0 Imaginary Frequencies
   Zero point vibrational energy:       21.598 kcal/mol

   Atom    1 Element O  Has Mass   15.99491
   Atom    2 Element H  Has Mass    1.00783
   Atom    3 Element H  Has Mass    1.00783
   Atom    4 Element H  Has Mass    1.00783
   Molecular Mass:    19.018400 amu
   Principal axes and moments of inertia in amu*Bohr^2:
                             1           2           3
    Eigenvalues --        5.45179     5.45352     9.52081
          X               0.65524     0.14174     0.74200
          Y              -0.01088     0.98391    -0.17835
          Z               0.75534    -0.10879    -0.64624
   Rotational Symmetry Number is   1
   The Molecule is an Asymmetric Top
   Translational Enthalpy:        0.889 kcal/mol
   Rotational Enthalpy:           0.889 kcal/mol
   Vibrational Enthalpy:         21.643 kcal/mol
   gas constant (RT):             0.592 kcal/mol
   Translational Entropy:        34.770  cal/mol.K
   Rotational Entropy:           13.412  cal/mol.K
   Vibrational Entropy:           0.186  cal/mol.K

   Total Enthalpy:               24.013 kcal/mol
   Total Entropy:                48.369  cal/mol.K

 Total job time:  332.84s(wall), 924.19s(cpu)
        *  Thank you very much for using Q-Chem.  Have a nice day.  *
